# Simple water molecule

3 atoms
2 bonds

2 atom types
1 bond types

0.0 10.0 xlo xhi
0.0 10.0 ylo yhi
0.0 10.0 zlo zhi

Masses

1 15.9994 # O
2 1.0080 # H

Atoms # molecular

1 1 1 0.0 0.0 0.0
2 1 2 0.9572 0.0 0.0
3 1 2 -0.2393 0.9266 0.0

Bonds

1 1 1 2
2 1 1 3